 PRIMCOORD 22551
103 1
    O       1.3604007460    14.0363693796     5.2927866431       0.0009877800     0.0079071600    -0.0057260500
    O       6.6248979452    14.0538567842     5.3015441145       0.0040740100     0.0101683300    -0.0130516600
    O       1.3564422625     6.5916764878     5.3035450365       0.0049810400     0.0090670000     0.0056900800
    O       9.2628556656     2.7594612949     5.3087191296       0.0007265200    -0.0072113000     0.0006106500
    O       6.6259997584     6.6043997465     5.3129219668       0.0017552300     0.0125341900    -0.0069730900
    O       9.2679215144    10.2121652249     5.3185055370      -0.0001599700    -0.0091256500    -0.0043496600
    O       3.9924906734     2.7374107139     5.3186325535       0.0034850500    -0.0097330800     0.0014917900
    O       3.9857948129    10.2023154567     5.3202451937       0.0035409400    -0.0117695400    -0.0041693300
    O       4.7645831992     5.0403594312     6.2702315680       0.0096947600     0.0069318500     0.0141544900
    O       2.1272638850     4.2973862837     6.2759871436      -0.0074927400     0.0114442000     0.0086529200
    O       7.4122434231     4.3312193689     6.3024638279      -0.0047261800    -0.0000669000     0.0149318100
    O       4.7836446119    12.4815087345     6.3059726055       0.0013039300    -0.0039951100     0.0158352900
    O       7.4288244902    11.7871801567     6.3088030613      -0.0024927200     0.0015406300     0.0250855500
    O      -0.5021848250     5.0450351638     6.3105405435      -0.0062017100    -0.0015474800    -0.0023120400
    O      -0.4863684512    12.4907931330     6.3123860179       0.0044761500     0.0113614600     0.0118863200
    O       2.1511796591    11.7627902680     6.3429439374       0.0005294000    -0.0055331300     0.0033385000
   Si       3.6821912490     3.8424735334     6.4578794606      -0.0051130000    -0.0277581900     0.0067158200
   Si       1.0543920740     5.5075918321     6.4618083297      -0.0156550700     0.0341047500     0.0443649600
   Si       8.9601273538     3.8509385316     6.4668254769       0.0090945000    -0.0213515800     0.0005492100
   Si       6.3283554020    12.9742667079     6.4687398003      -0.0092968900     0.0279471400    -0.0328950200
   Si       1.0642375728    12.9682063463     6.4724589065       0.0040054200     0.0145127500    -0.0224467800
   Si       6.3109325717     5.5240932187     6.4735709455       0.0043361800     0.0258081500    -0.0003427000
   Si       8.9747934671    11.3012792666     6.4794038929       0.0096195300    -0.0188455800    -0.0233368100
   Si       3.7023779519    11.2771507929     6.4927415647      -0.0087125600    -0.0196063000    -0.0082845000
    O      -0.3647417804     8.2414030909     8.5513213423      -0.0270749700     0.0175658600     0.0014595400
    O       2.4009775416     1.0150931356     8.4650244546      -0.0076789600    -0.0095234300    -0.0285819200
    O      -0.2396202205     0.7415955918     8.4591741925       0.0028996500     0.0077421600     0.0064069500
    O       5.0816136618     1.1589860369     8.6343708673       0.0584287700    -0.0604179100    -0.0229010000
    O       7.6943521131     1.1589492211     8.5293969396      -0.0296067100    -0.0372082400     0.0036115700
    O       1.0882843413     6.0765982840     8.0800162618       0.0229254300    -0.0387409500    -0.0900542100
    O       1.3649305030    13.6139248556     7.9377662818      -0.0126493200    -0.0107783900     0.0180665400
    O       6.4494816568    13.7615298586     7.8878140562       0.0003516400     0.0102327400     0.0100453700
    O       9.1931605847     3.2618572012     7.9948317775       0.0034341100    -0.0068285700    -0.0269726000
    O       3.7943572390     3.3069507697     8.0116436259      -0.0038860000    -0.0099010600    -0.0063837700
    O       3.8657852735    10.6477752192     8.0010806671       0.0113013000     0.0260984500    -0.0325264300
    O       6.5279492081     6.1924557074     7.9726059505      -0.0116374300     0.0135188100     0.0069337200
    O       9.2589876640    10.6751960551     7.9618565102      -0.0074157900     0.0064140300     0.0006257900
    O       7.4321979403     8.7533721914     8.3458821593       0.0019100300    -0.0327103300    -0.0124234500
    O       2.2970245143     8.5231855679     8.3512531069      -0.0298075100    -0.0125806600     0.0009873400
    O       4.8280062273     8.2119547475     8.5928873105      -0.0137662700     0.0191983300    -0.0035568400
   Si       1.1894528817     0.0016131955     8.8397478021      -0.0180089600     0.0619269300    -0.0579051700
   Si       3.6824353564     1.9061996255     8.8598523763      -0.0111959900     0.0230362400     0.0265090800
   Si       6.3897813658     0.1821748148     8.7757868508       0.0101421600     0.0273266000     0.0440423900
   Si       9.1534979825     1.8504227591     8.8046208014      -0.0062927300    -0.0289852600     0.0121100500
   Si       8.9281369482     9.2906224089     8.7326192903       0.0000979200    -0.0373717100     0.0263316900
   Si       1.0985518639     7.4952522530     8.8190155480      -0.0315830200     0.0476251100     0.0152191400
   Si       6.2965689663     7.5929078723     8.8141578282       0.0521943300     0.0294070600    -0.0076511700
   Si       3.6310095017     9.3018337102     8.8511591635       0.0102124900    -0.0413169900    -0.0233179600
    O       1.3476040019    14.6782033367    10.4170549812       0.0165730000    -0.0125999200     0.0286284900
    O       3.4611476504     2.1039980777    10.4473302255      -0.0004600200     0.0116161700     0.0242657700
    O       6.3924575260    14.4407143274    10.3659630585      -0.0172540300     0.0283232100    -0.0331623900
    O       9.1412449432     2.2847775977    10.3639577938       0.0286106200     0.0098969600     0.0579436700
    O       8.8485280168     9.6640286848    10.3670732040       0.0314840200    -0.0329440000    -0.0273189900
    O       1.2105974158     7.1770051042    10.4087457657      -0.0230042400     0.0227629000     0.0378208700
    O       6.4767428789     7.4784179081    10.4246510135      -0.0030713700    -0.0108303800     0.0077701600
    O       3.5387759876     9.8223299405    10.3801604148       0.0069675700    -0.0181838300     0.0246776700
    H       0.4091753598     7.5252528220    11.0129073678       0.0323714500    -0.0188469400    -0.0092027900
    H       8.6919329614    10.5930110689    10.5932739648      -0.0177593100     0.0448426400     0.0035929100
    H       5.4623281247    14.0981538444    10.5941507951       0.0149814300     0.0037198800    -0.0121199400
    H       0.6688422929    14.1191397568    10.8796214193      -0.0281370100    -0.0265929700     0.0120017100
    H       3.9298832423     2.7887217871    11.0023233983      -0.0006968700     0.0128860700    -0.0167758200
    H       9.9443834335     2.2726360218    11.0341368745      -0.0209168600    -0.0059065600    -0.0296457000
    H       8.8521390049    -0.3995209332    14.4963274434       0.0045741600     0.0136959900    -0.0185346700
    H       2.5686148285    10.0075244328    10.6273958695       0.0051399400     0.0152203500     0.0071560600
    H       6.8656043804     6.6693879427    10.8336402257       0.0080851100    -0.0182943800    -0.0029663500
    H       2.9814919094    13.4403355308    10.3625761978       0.0319537100    -0.0036614200     0.0145335100
    Pt       9.2454981317    -0.0107911580    13.6753815717       0.0067608300    -0.0085893400     0.0129453800
    H       9.7733845946    13.6644745025    12.5056699442       0.0013839000     0.0075818400     0.0034197900
    Pt       3.9219240945    13.2058360902    10.6378687160      -0.0247673400     0.0057903900    -0.0001982900
    H       7.3683462894    13.0791360617    10.6272673044       0.0209407900    -0.0305685100     0.0162006400
    Pt       7.8489213079    12.2607982385    11.0162150165       0.0150193700     0.0385825200    -0.0455963100
    H       8.5302725680     0.5641531193    13.2448921685      -0.0093350600    -0.0105467300     0.0052844900
    H       7.1283275409    11.6116051056    11.1976067716      -0.0392324300    -0.0167917600     0.0223582400
    Pt      10.0506927215    13.1181206490    11.7166130066       0.0436174600     0.0183655300     0.0201225700
    H       4.1929243736     5.1803021418    11.7893817096       0.0165509700    -0.0262861100    -0.0137324600
    H       2.8356064433     6.9849248071    11.1276039712       0.0262715600    -0.0162019400     0.0138415600
    H       4.0287959381    12.2374064718    10.4842125265      -0.0026517000    -0.0000453900    -0.0051352300
    H       7.8846271581     1.8371403610    11.8020449450       0.0225796000     0.0239147400    -0.0359104600
    Pt       4.5949391609     4.2304222768    11.8012303569      -0.0115278600     0.0143674100     0.0180303400
    H       9.2098158330    12.6012526565    11.5131733541      -0.0109285200     0.0046275300    -0.0126372600
    H      11.7193935167     1.3729553541    11.3188857064      -0.0003424100     0.0227842800     0.0136979500
    Pt      11.2800202842     2.0183247582    11.9594013576       0.0106083100    -0.0179825200    -0.0312858000
    Pt       3.7881485597     6.7736783259    11.4328837418      -0.0982664200    -0.0532048100     0.0253570400
    H      11.2171167071     1.4348506342    12.7403441727      -0.0171626600     0.0000834100     0.0202078600
    Pt       7.3010984064     1.2923453537    12.3468508576      -0.0225478200    -0.0250789000     0.0342846200
    H       4.3129342621     3.8529915760    12.6669125617       0.0069525200     0.0094641400    -0.0023191500
    H       4.3011413099     7.4703149891    11.0579185445       0.0624803500     0.0582589800    -0.0282919600
    H       6.9686509262     0.5919784745    11.7212843989       0.0012180700     0.0058855400    -0.0018924100
    H       9.2746029089     8.5548809664    11.4657390337      -0.0132037700    -0.0004919200     0.0027248200
    H       0.4558345393    10.3285840733    10.4141013803      -0.0204214800    -0.0013006600     0.0164340400
    H       8.0473724436     4.3491511823    10.5985482335      -0.0046775700     0.0216845400     0.0209845900
    H       3.9834506176    -2.0330836913    12.7549290286      -0.0045386700     0.0007589700    -0.0065722000
    Pt       7.6587055973     4.9820224035    11.2711838611       0.0104979700    -0.0146900000    -0.0227386700
    Pt       9.8314637576     7.9580709716    12.0417265306       0.0311315000    -0.0096818800     0.0014236500
    H       5.3354032672    11.4650043897    12.4260779661      -0.0165829700     0.0133928900     0.0378122100
    H       6.8589304575     4.4959268980    11.5734691323      -0.0134282600     0.0000944800     0.0055924700
    Pt       1.2079400289    10.8334897469    10.7815032053       0.0296492400     0.0056087500     0.0062625600
    Pt       4.2252993953    -2.7946165757    13.3337817883      -0.0361036900     0.0365566700     0.0713503700
    Pt       5.8649496709    10.9781663960    11.7696279692      -0.0027967100    -0.0670881800    -0.0473663500
    H       9.3449416445     7.1376468532    12.2569701319      -0.0118321200    -0.0005136300    -0.0032011400
    H       1.0609296143    11.0364089493    11.7372466550      -0.0192823700    -0.0046129900    -0.0175389200
    H       5.2616766544    10.2458981829    11.4518850436       0.0168250100     0.0222748500     0.0065748900
    H       3.9697035871    -2.4977848536    14.2731784170       0.0216472600    -0.0220185600    -0.0586520100
