ANIMSTEPS 31
CRYSTAL
PRIMVEC
    10.5599958569    0.0000000000    0.0000000000
     0.0000000000   14.9399970185    0.0000000000
     0.0000000000    0.0000000000   21.9999878486
 PRIMCOORD 1
103 1
    O       1.3604007460    14.0363693796     5.2927866431       0.0009877800     0.0079071600    -0.0057260500
    O       6.6248979452    14.0538567842     5.3015441145       0.0040740100     0.0101683300    -0.0130516600
    O       1.3564422625     6.5916764878     5.3035450365       0.0049810400     0.0090670000     0.0056900800
    O       9.2628556656     2.7594612949     5.3087191296       0.0007265200    -0.0072113000     0.0006106500
    O       6.6259997584     6.6043997465     5.3129219668       0.0017552300     0.0125341900    -0.0069730900
    O       9.2679215144    10.2121652249     5.3185055370      -0.0001599700    -0.0091256500    -0.0043496600
    O       3.9924906734     2.7374107139     5.3186325535       0.0034850500    -0.0097330800     0.0014917900
    O       3.9857948129    10.2023154567     5.3202451937       0.0035409400    -0.0117695400    -0.0041693300
    O       4.7645831992     5.0403594312     6.2702315680       0.0096947600     0.0069318500     0.0141544900
    O       2.1272638850     4.2973862837     6.2759871436      -0.0074927400     0.0114442000     0.0086529200
    O       7.4122434231     4.3312193689     6.3024638279      -0.0047261800    -0.0000669000     0.0149318100
    O       4.7836446119    12.4815087345     6.3059726055       0.0013039300    -0.0039951100     0.0158352900
    O       7.4288244902    11.7871801567     6.3088030613      -0.0024927200     0.0015406300     0.0250855500
    O      -0.5021848250     5.0450351638     6.3105405435      -0.0062017100    -0.0015474800    -0.0023120400
    O      -0.4863684512    12.4907931330     6.3123860179       0.0044761500     0.0113614600     0.0118863200
    O       2.1511796591    11.7627902680     6.3429439374       0.0005294000    -0.0055331300     0.0033385000
   Si       3.6821912490     3.8424735334     6.4578794606      -0.0051130000    -0.0277581900     0.0067158200
   Si       1.0543920740     5.5075918321     6.4618083297      -0.0156550700     0.0341047500     0.0443649600
   Si       8.9601273538     3.8509385316     6.4668254769       0.0090945000    -0.0213515800     0.0005492100
   Si       6.3283554020    12.9742667079     6.4687398003      -0.0092968900     0.0279471400    -0.0328950200
   Si       1.0642375728    12.9682063463     6.4724589065       0.0040054200     0.0145127500    -0.0224467800
   Si       6.3109325717     5.5240932187     6.4735709455       0.0043361800     0.0258081500    -0.0003427000
   Si       8.9747934671    11.3012792666     6.4794038929       0.0096195300    -0.0188455800    -0.0233368100
   Si       3.7023779519    11.2771507929     6.4927415647      -0.0087125600    -0.0196063000    -0.0082845000
    O      -0.3647417804     8.2414030909     8.5513213423      -0.0270749700     0.0175658600     0.0014595400
    O       2.4009775416     1.0150931356     8.4650244546      -0.0076789600    -0.0095234300    -0.0285819200
    O      -0.2396202205     0.7415955918     8.4591741925       0.0028996500     0.0077421600     0.0064069500
    O       5.0816136618     1.1589860369     8.6343708673       0.0584287700    -0.0604179100    -0.0229010000
    O       7.6943521131     1.1589492211     8.5293969396      -0.0296067100    -0.0372082400     0.0036115700
    O       1.0882843413     6.0765982840     8.0800162618       0.0229254300    -0.0387409500    -0.0900542100
    O       1.3649305030    13.6139248556     7.9377662818      -0.0126493200    -0.0107783900     0.0180665400
    O       6.4494816568    13.7615298586     7.8878140562       0.0003516400     0.0102327400     0.0100453700
    O       9.1931605847     3.2618572012     7.9948317775       0.0034341100    -0.0068285700    -0.0269726000
    O       3.7943572390     3.3069507697     8.0116436259      -0.0038860000    -0.0099010600    -0.0063837700
    O       3.8657852735    10.6477752192     8.0010806671       0.0113013000     0.0260984500    -0.0325264300
    O       6.5279492081     6.1924557074     7.9726059505      -0.0116374300     0.0135188100     0.0069337200
    O       9.2589876640    10.6751960551     7.9618565102      -0.0074157900     0.0064140300     0.0006257900
    O       7.4321979403     8.7533721914     8.3458821593       0.0019100300    -0.0327103300    -0.0124234500
    O       2.2970245143     8.5231855679     8.3512531069      -0.0298075100    -0.0125806600     0.0009873400
    O       4.8280062273     8.2119547475     8.5928873105      -0.0137662700     0.0191983300    -0.0035568400
   Si       1.1894528817     0.0016131955     8.8397478021      -0.0180089600     0.0619269300    -0.0579051700
   Si       3.6824353564     1.9061996255     8.8598523763      -0.0111959900     0.0230362400     0.0265090800
   Si       6.3897813658     0.1821748148     8.7757868508       0.0101421600     0.0273266000     0.0440423900
   Si       9.1534979825     1.8504227591     8.8046208014      -0.0062927300    -0.0289852600     0.0121100500
   Si       8.9281369482     9.2906224089     8.7326192903       0.0000979200    -0.0373717100     0.0263316900
   Si       1.0985518639     7.4952522530     8.8190155480      -0.0315830200     0.0476251100     0.0152191400
   Si       6.2965689663     7.5929078723     8.8141578282       0.0521943300     0.0294070600    -0.0076511700
   Si       3.6310095017     9.3018337102     8.8511591635       0.0102124900    -0.0413169900    -0.0233179600
    O       1.3476040019    14.6782033367    10.4170549812       0.0165730000    -0.0125999200     0.0286284900
    O       3.4611476504     2.1039980777    10.4473302255      -0.0004600200     0.0116161700     0.0242657700
    O       6.3924575260    14.4407143274    10.3659630585      -0.0172540300     0.0283232100    -0.0331623900
    O       9.1412449432     2.2847775977    10.3639577938       0.0286106200     0.0098969600     0.0579436700
    O       8.8485280168     9.6640286848    10.3670732040       0.0314840200    -0.0329440000    -0.0273189900
    O       1.2105974158     7.1770051042    10.4087457657      -0.0230042400     0.0227629000     0.0378208700
    O       6.4767428789     7.4784179081    10.4246510135      -0.0030713700    -0.0108303800     0.0077701600
    O       3.5387759876     9.8223299405    10.3801604148       0.0069675700    -0.0181838300     0.0246776700
    H       0.4091753598     7.5252528220    11.0129073678       0.0323714500    -0.0188469400    -0.0092027900
    H       8.6919329614    10.5930110689    10.5932739648      -0.0177593100     0.0448426400     0.0035929100
    H       5.4623281247    14.0981538444    10.5941507951       0.0149814300     0.0037198800    -0.0121199400
    H       0.6688422929    14.1191397568    10.8796214193      -0.0281370100    -0.0265929700     0.0120017100
    H       3.9298832423     2.7887217871    11.0023233983      -0.0006968700     0.0128860700    -0.0167758200
    H       9.9443834335     2.2726360218    11.0341368745      -0.0209168600    -0.0059065600    -0.0296457000
    H       8.8521390049    -0.3995209332    14.4963274434       0.0045741600     0.0136959900    -0.0185346700
    H       2.5686148285    10.0075244328    10.6273958695       0.0051399400     0.0152203500     0.0071560600
    H       6.8656043804     6.6693879427    10.8336402257       0.0080851100    -0.0182943800    -0.0029663500
    H       2.9814919094    13.4403355308    10.3625761978       0.0319537100    -0.0036614200     0.0145335100
    Pt       9.2454981317    -0.0107911580    13.6753815717       0.0067608300    -0.0085893400     0.0129453800
    H       9.7733845946    13.6644745025    12.5056699442       0.0013839000     0.0075818400     0.0034197900
    Pt       3.9219240945    13.2058360902    10.6378687160      -0.0247673400     0.0057903900    -0.0001982900
    H       7.3683462894    13.0791360617    10.6272673044       0.0209407900    -0.0305685100     0.0162006400
    Pt       7.8489213079    12.2607982385    11.0162150165       0.0150193700     0.0385825200    -0.0455963100
    H       8.5302725680     0.5641531193    13.2448921685      -0.0093350600    -0.0105467300     0.0052844900
    H       7.1283275409    11.6116051056    11.1976067716      -0.0392324300    -0.0167917600     0.0223582400
    Pt      10.0506927215    13.1181206490    11.7166130066       0.0436174600     0.0183655300     0.0201225700
    H       4.1929243736     5.1803021418    11.7893817096       0.0165509700    -0.0262861100    -0.0137324600
    H       2.8356064433     6.9849248071    11.1276039712       0.0262715600    -0.0162019400     0.0138415600
    H       4.0287959381    12.2374064718    10.4842125265      -0.0026517000    -0.0000453900    -0.0051352300
    H       7.8846271581     1.8371403610    11.8020449450       0.0225796000     0.0239147400    -0.0359104600
    Pt       4.5949391609     4.2304222768    11.8012303569      -0.0115278600     0.0143674100     0.0180303400
    H       9.2098158330    12.6012526565    11.5131733541      -0.0109285200     0.0046275300    -0.0126372600
    H      11.7193935167     1.3729553541    11.3188857064      -0.0003424100     0.0227842800     0.0136979500
    Pt      11.2800202842     2.0183247582    11.9594013576       0.0106083100    -0.0179825200    -0.0312858000
    Pt       3.7881485597     6.7736783259    11.4328837418      -0.0982664200    -0.0532048100     0.0253570400
    H      11.2171167071     1.4348506342    12.7403441727      -0.0171626600     0.0000834100     0.0202078600
    Pt       7.3010984064     1.2923453537    12.3468508576      -0.0225478200    -0.0250789000     0.0342846200
    H       4.3129342621     3.8529915760    12.6669125617       0.0069525200     0.0094641400    -0.0023191500
    H       4.3011413099     7.4703149891    11.0579185445       0.0624803500     0.0582589800    -0.0282919600
    H       6.9686509262     0.5919784745    11.7212843989       0.0012180700     0.0058855400    -0.0018924100
    H       9.2746029089     8.5548809664    11.4657390337      -0.0132037700    -0.0004919200     0.0027248200
    H       0.4558345393    10.3285840733    10.4141013803      -0.0204214800    -0.0013006600     0.0164340400
    H       8.0473724436     4.3491511823    10.5985482335      -0.0046775700     0.0216845400     0.0209845900
    H       3.9834506176    -2.0330836913    12.7549290286      -0.0045386700     0.0007589700    -0.0065722000
    Pt       7.6587055973     4.9820224035    11.2711838611       0.0104979700    -0.0146900000    -0.0227386700
    Pt       9.8314637576     7.9580709716    12.0417265306       0.0311315000    -0.0096818800     0.0014236500
    H       5.3354032672    11.4650043897    12.4260779661      -0.0165829700     0.0133928900     0.0378122100
    H       6.8589304575     4.4959268980    11.5734691323      -0.0134282600     0.0000944800     0.0055924700
    Pt       1.2079400289    10.8334897469    10.7815032053       0.0296492400     0.0056087500     0.0062625600
    Pt       4.2252993953    -2.7946165757    13.3337817883      -0.0361036900     0.0365566700     0.0713503700
    Pt       5.8649496709    10.9781663960    11.7696279692      -0.0027967100    -0.0670881800    -0.0473663500
    H       9.3449416445     7.1376468532    12.2569701319      -0.0118321200    -0.0005136300    -0.0032011400
    H       1.0609296143    11.0364089493    11.7372466550      -0.0192823700    -0.0046129900    -0.0175389200
    H       5.2616766544    10.2458981829    11.4518850436       0.0168250100     0.0222748500     0.0065748900
    H       3.9697035871    -2.4977848536    14.2731784170       0.0216472600    -0.0220185600    -0.0586520100
 PRIMCOORD 2
103 1
    O       1.3604007460    14.0363693796     5.2927866431       0.0009647100     0.0078731800    -0.0054795900
    O       6.6248979452    14.0538567842     5.3015441145       0.0040726100     0.0102122300    -0.0131037600
    O       1.3564422625     6.5916764878     5.3035450365       0.0049933100     0.0091086300     0.0054792800
    O       9.2628556656     2.7594612949     5.3087191296       0.0006638400    -0.0071770900     0.0007085300
    O       6.6259997584     6.6043997465     5.3129219668       0.0018110800     0.0124482300    -0.0072055800
    O       9.2679215144    10.2121652249     5.3185055370      -0.0001749300    -0.0091316800    -0.0045573800
    O       3.9924906734     2.7374107139     5.3186325535       0.0036066200    -0.0097516800     0.0012078700
    O       3.9857948129    10.2023154567     5.3202451937       0.0035109700    -0.0117473400    -0.0040613200
    O       4.7645831992     5.0403594312     6.2702315680       0.0099140100     0.0068152900     0.0140929300
    O       2.1272638850     4.2973862837     6.2759871436      -0.0078194600     0.0116394800     0.0079720200
    O       7.4122434231     4.3312193689     6.3024638279      -0.0048172500     0.0000328800     0.0154285100
    O       4.7836446119    12.4815087345     6.3059726055       0.0011480200    -0.0041185500     0.0157584500
    O       7.4288244902    11.7871801567     6.3088030613      -0.0023336600     0.0013807300     0.0251304400
    O      -0.5021848250     5.0450351638     6.3105405435      -0.0064918300    -0.0015206600    -0.0024603300
    O      -0.4863684512    12.4907931330     6.3123860179       0.0044197900     0.0113561800     0.0120108800
    O       2.1511796591    11.7627902680     6.3429439374       0.0006190600    -0.0055935900     0.0035115300
   Si       3.6821912490     3.8424735334     6.4578794606      -0.0057512500    -0.0268321400     0.0042946600
   Si       1.0543920740     5.5075918321     6.4618083297      -0.0153819500     0.0338774100     0.0445689400
   Si       8.9601273538     3.8509385316     6.4668254769       0.0098406500    -0.0222517900     0.0023880200
   Si       6.3283554020    12.9742667079     6.4687398003      -0.0094141600     0.0274547900    -0.0339844400
   Si       1.0642375728    12.9682063463     6.4724589065       0.0042016800     0.0148108100    -0.0218646400
   Si       6.3109325717     5.5240932187     6.4735709455       0.0039629600     0.0263006100    -0.0002961000
   Si       8.9747934671    11.3012792666     6.4794038929       0.0094538300    -0.0186042300    -0.0245615100
   Si       3.7023779519    11.2771507929     6.4927415647      -0.0086173800    -0.0192970100    -0.0089949300
    O      -0.3629997376     8.2406110227     8.5525918750      -0.0302096100     0.0192224700     0.0013086300
    O       2.4017190789     1.0128921055     8.4627866654      -0.0061264000    -0.0078654100    -0.0276965900
    O      -0.2413826235     0.7397832884     8.4588269655       0.0040247100     0.0075746700     0.0074606500
    O       5.0806462809     1.1617565518     8.6339881900       0.0626603400    -0.0624457700    -0.0234860900
    O       7.6976062284     1.1582752015     8.5315781178      -0.0358304800    -0.0398799200     0.0034515200
    O       1.0892378422     6.0745784682     8.0794210946       0.0224368500    -0.0359751200    -0.0878672800
    O       1.3645064763    13.6130086067     7.9394039429      -0.0127855800    -0.0126058300     0.0157386900
    O       6.4494215948    13.7601621882     7.8872104027       0.0003956900     0.0148720200     0.0142002900
    O       9.1958782909     3.2617792123     7.9967651675       0.0025558400    -0.0075464000    -0.0281746600
    O       3.7897821424     3.3079978860     8.0088210277      -0.0031772000    -0.0127740800    -0.0020667100
    O       3.8670487299    10.6479719631     8.0010860230       0.0110448400     0.0266532300    -0.0332575800
    O       6.5250342120     6.1975147357     7.9703240685      -0.0106636600     0.0108729600     0.0059320000
    O       9.2593716960    10.6731479159     7.9599140209      -0.0067600600     0.0074057100     0.0012527600
    O       7.4339529394     8.7520344135     8.3461393935       0.0014674300    -0.0322507100    -0.0126451300
    O       2.2932090579     8.5191211004     8.3541271965      -0.0204091800    -0.0059745800     0.0010002100
    O       4.8282323248     8.2101389870     8.5936284916      -0.0162139100     0.0214382500    -0.0039726100
   Si       1.1900360953     0.0011805970     8.8381430622      -0.0189093300     0.0626564400    -0.0568957700
   Si       3.6822235139     1.9060332669     8.8589567773      -0.0139003900     0.0260838500     0.0280439600
   Si       6.3893322369     0.1839240457     8.7771492136       0.0095504800     0.0236808500     0.0438798700
   Si       9.1520624273     1.8484698947     8.8069504333      -0.0018622200    -0.0248242500     0.0101156500
   Si       8.9285046993     9.2915078068     8.7332883018       0.0007641300    -0.0404408800     0.0222093100
   Si       1.0973212768     7.4951230979     8.8207637891      -0.0311972200     0.0419360600     0.0131340800
   Si       6.2968188664     7.5945025217     8.8148137659       0.0529326300     0.0285018600    -0.0082729000
   Si       3.6328927324     9.3034002981     8.8505838896       0.0050777700    -0.0471918800    -0.0243407900
    O       1.3484403163    14.6752932655    10.4156259169       0.0251684200    -0.0052810300     0.0211447300
    O       3.4640742371     2.1056937723    10.4480038510      -0.0118227400    -0.0043417900     0.0097595000
    O       6.3898985216    14.4399601964    10.3695516475      -0.0064124400     0.0322175700    -0.0381878400
    O       9.1403601330     2.2876166738    10.3652071917       0.0259895900     0.0100096000     0.0551948500
    O       8.8476244607     9.6602976589    10.3621314324       0.0294712700    -0.0222405600    -0.0193133500
    O       1.2106834257     7.1755779506    10.4100078226      -0.0217078000     0.0223786900     0.0363906200
    O       6.4754951170     7.4763870437    10.4233796302       0.0018877200    -0.0198197500     0.0157537900
    O       3.5387975573     9.8212865407    10.3788774993      -0.0061751100    -0.0152433600     0.0296380000
    H       0.4115017056     7.5301184474    11.0057845203       0.0307472000    -0.0191845100    -0.0068111800
    H       8.7037980834    10.5921096616    10.6031361698      -0.0165180200     0.0362637300     0.0005295700
    H       5.4706137731    14.0873078075    10.5946927350       0.0052744600     0.0014909100    -0.0098661600
    H       0.6650192102    14.1244915576    10.8648617992      -0.0361896400    -0.0338225700     0.0200270300
    H       3.9214211800     2.7796906181    11.0024818020       0.0097298900     0.0269811900    -0.0058992000
    H       9.9451758558     2.2816930188    11.0261037027      -0.0184344300    -0.0064053800    -0.0263468400
    H       8.8587066215    -0.3933112726    14.5025140236       0.0062529000     0.0156835800    -0.0231675300
    H       2.5570709849    10.0092224168    10.6259852471       0.0177106600     0.0135324500     0.0035645900
    H       6.8688759112     6.6669420067    10.8439160083       0.0033274600    -0.0086191700    -0.0098092600
    H       2.9804972845    13.4431063685    10.3672377005       0.0396199700    -0.0058750100     0.0164493100
    Pt       9.2467549510    -0.0096594207    13.6733407815       0.0128427300    -0.0164146200     0.0217101500
    H       9.7728938631    13.6674238371    12.5146279809       0.0032059200    -0.0023120200    -0.0106547600
    Pt       3.9263385981    13.2034858330    10.6396596543      -0.0347091000     0.0221489000    -0.0001288800
    H       7.3756483553    13.0731695683    10.6266389866       0.0184172800    -0.0282729500     0.0150589700
    Pt       7.8497228000    12.2571348139    11.0191763638       0.0071807700     0.0254507600    -0.0418425600
    H       8.5379141499     0.5665943204    13.2500922888      -0.0167338000    -0.0052907600     0.0011329200
    H       7.1228427598    11.5980327544    11.1930148657      -0.0287584800    -0.0056474200     0.0196328700
    Pt      10.0512781855    13.1194073205    11.7137619771       0.0401508800     0.0260524000     0.0303445800
    H       4.2023532140     5.1836188999    11.7929168628       0.0159726500    -0.0298494100    -0.0126337600
    H       2.8372614625     6.9946368814    11.1303738224       0.0245810700    -0.0182906800     0.0139853100
    H       4.0293347501    12.2419306154    10.4885145927      -0.0015264500    -0.0142880700    -0.0076033000
    H       7.8954283161     1.8504075483    11.8088135432       0.0064410800     0.0072831200    -0.0250942100
    Pt       4.5971943010     4.2284229785    11.8007298949      -0.0147991000     0.0124916300     0.0286601500
    H       9.2153892950    12.5989064324    11.4939498386      -0.0103601500     0.0070602300    -0.0082300800
    H      11.7222596046     1.3859685990    11.3183996776       0.0051568800     0.0139620100     0.0069057700
    Pt      11.2806481697     2.0182997764    11.9565815001       0.0060482900    -0.0018054200    -0.0316231800
    Pt       3.7871962577     6.7723392170    11.4338479219      -0.0885820700    -0.0399135300     0.0187992700
    H      11.2115635386     1.4401581218    12.7342015303      -0.0172653300    -0.0070951600     0.0279181200
    Pt       7.2996535059     1.2917813074    12.3471113154      -0.0119094200    -0.0186308000     0.0193031200
    H       4.3083584006     3.8398752589    12.6673126952       0.0103881900     0.0160222100    -0.0135779400
    H       4.3019774496     7.4763740591    11.0596826817       0.0551464300     0.0468323500    -0.0217685400
    H       6.9754432456     0.5760088199    11.7244248951       0.0062055400     0.0162175000     0.0018152700
    H       9.2701005309     8.5530960821    11.4702872789      -0.0143957300     0.0037431300    -0.0011601100
    H       0.4565088033    10.3250363574    10.4026973097      -0.0130275600     0.0039638400     0.0225230200
    H       8.0463612138     4.3529602696    10.5952552556      -0.0052114600     0.0214869700     0.0211849200
    H       3.9692149350    -2.0306143605    12.7542205818      -0.0027608500    -0.0010915500    -0.0085151000
    Pt       7.6593220244     4.9834007133    11.2708454018       0.0255218100    -0.0045929500    -0.0280536700
    Pt       9.8295830430     7.9579040575    12.0387554937       0.0410494800     0.0043548200     0.0003290500
    H       5.3300917289    11.4632245680    12.4189189411      -0.0162087000     0.0161499600     0.0392455700
    H       6.8659844235     4.5063047944    11.5742364040      -0.0281357400    -0.0097657200     0.0109844000
    Pt       1.2070952271    10.8328487340    10.7834988985       0.0238450900     0.0021030700     0.0093431500
    Pt       4.2251849864    -2.7915412217    13.3287669847      -0.0362486800     0.0371544600     0.0621937300
    Pt       5.8651828726    10.9789350876    11.7664073437      -0.0056751400    -0.0716008800    -0.0486994200
    H       9.3428339481     7.1463565834    12.2418784086      -0.0208088800    -0.0190988700     0.0025956100
    H       1.0659584633    11.0260407054    11.7472935140      -0.0199523700    -0.0073026800    -0.0268127700
    H       5.2593172803    10.2443861235    11.4526253078       0.0194885900     0.0237853100     0.0059637900
    H       3.9624476622    -2.4944519970    14.2588290870       0.0202602500    -0.0211319900    -0.0473161100
 PRIMCOORD 3
103 1
    O       1.3604007460    14.0363693796     5.2927866431       0.0009528200     0.0078712100    -0.0052631700
    O       6.6248979452    14.0538567842     5.3015441145       0.0040723400     0.0102430100    -0.0131318200
    O       1.3564422625     6.5916764878     5.3035450365       0.0049969500     0.0091226800     0.0052721300
    O       9.2628556656     2.7594612949     5.3087191296       0.0006086400    -0.0071401900     0.0008057900
    O       6.6259997584     6.6043997465     5.3129219668       0.0019033100     0.0124654500    -0.0075383200
    O       9.2679215144    10.2121652249     5.3185055370      -0.0001839900    -0.0091319400    -0.0047598100
    O       3.9924906734     2.7374107139     5.3186325535       0.0037151200    -0.0097873500     0.0009346200
    O       3.9857948129    10.2023154567     5.3202451937       0.0034775900    -0.0117383000    -0.0039818800
    O       4.7645831992     5.0403594312     6.2702315680       0.0100611800     0.0066785300     0.0140699200
    O       2.1272638850     4.2973862837     6.2759871436      -0.0081292000     0.0118206700     0.0072968000
    O       7.4122434231     4.3312193689     6.3024638279      -0.0048953900     0.0000518300     0.0159455300
    O       4.7836446119    12.4815087345     6.3059726055       0.0010142700    -0.0042240800     0.0156815100
    O       7.4288244902    11.7871801567     6.3088030613      -0.0021840100     0.0012391300     0.0251743800
    O      -0.5021848250     5.0450351638     6.3105405435      -0.0067653300    -0.0015296800    -0.0026136100
    O      -0.4863684512    12.4907931330     6.3123860179       0.0043392300     0.0113245100     0.0121294200
    O       2.1511796591    11.7627902680     6.3429439374       0.0007079800    -0.0056789900     0.0036792000
   Si       3.6821912490     3.8424735334     6.4578794606      -0.0063485600    -0.0259144400     0.0018392600
   Si       1.0543920740     5.5075918321     6.4618083297      -0.0151148600     0.0335755700     0.0446332900
   Si       8.9601273538     3.8509385316     6.4668254769       0.0105371800    -0.0231016000     0.0040838700
   Si       6.3283554020    12.9742667079     6.4687398003      -0.0095332000     0.0270111600    -0.0349343600
   Si       1.0642375728    12.9682063463     6.4724589065       0.0044138800     0.0151559200    -0.0212597600
   Si       6.3109325717     5.5240932187     6.4735709455       0.0036476300     0.0269276700    -0.0004247300
   Si       8.9747934671    11.3012792666     6.4794038929       0.0093049700    -0.0183596400    -0.0257062200
   Si       3.7023779519    11.2771507929     6.4927415647      -0.0085452100    -0.0189462100    -0.0098240100
    O      -0.3614153325     8.2399105388     8.5538321365      -0.0330698600     0.0206371900     0.0010823900
    O       2.4024179463     1.0107232012     8.4605100540      -0.0043788800    -0.0060096000    -0.0268889800
    O      -0.2430818448     0.7380484237     8.4585163816       0.0049077200     0.0075980200     0.0084315900
    O       5.0799329395     1.1642241058     8.6335308366       0.0660684700    -0.0639780600    -0.0239784700
    O       7.7006406322     1.1574750476     8.5337117005      -0.0415923600    -0.0422409800     0.0033198600
    O       1.0902464782     6.0724837820     8.0785234881       0.0219371300    -0.0328251000    -0.0852701000
    O       1.3640477420    13.6120718698     7.9410535760      -0.0129418700    -0.0143992000     0.0132569400
    O       6.4493646241    13.7588861811     7.8866749164       0.0004446200     0.0192370500     0.0180548600
    O       9.1985303632     3.2616759894     7.9985430300       0.0016623500    -0.0083999900    -0.0291216900
    O       3.7853216205     3.3089697872     8.0060687296      -0.0024344300    -0.0155995800     0.0022377700
    O       3.8683174398    10.6482600007     8.0009705494       0.0107523700     0.0269246500    -0.0336410400
    O       6.5221608669     6.2024737764     7.9681266077      -0.0096939400     0.0081935900     0.0050465100
    O       9.2597206126    10.6711831028     7.9580296185      -0.0061666400     0.0082962500     0.0018709900
    O       7.4356648902     8.7506164807     8.3463436521       0.0010245000    -0.0317291800    -0.0128658500
    O       2.2894247083     8.5151469824     8.3569256967      -0.0112434300     0.0004929800     0.0008729700
    O       4.8283933549     8.2084510674     8.5943348281      -0.0183883900     0.0235043300    -0.0043103900
   Si       1.1905653765     0.0008853630     8.8364686462      -0.0196338600     0.0629430300    -0.0549721400
   Si       3.6819896812     1.9059237146     8.8581420090      -0.0163254300     0.0286405900     0.0293015300
   Si       6.3889146078     0.1856724725     8.7785618749       0.0090051700     0.0198536400     0.0437481100
   Si       9.1506627123     1.8465211582     8.8092361053       0.0024189800    -0.0207521400     0.0080436300
   Si       8.9288638439     9.2922878362     8.7339833373       0.0014302600    -0.0432229800     0.0180077900
   Si       1.0960621504     7.4950814604     8.8224901382      -0.0309773900     0.0360376100     0.0111309100
   Si       6.2971678517     7.5961102795     8.8154350613       0.0534992500     0.0276497200    -0.0090237000
   Si       3.6347342214     9.3048292259     8.8499757408       0.0001110800    -0.0524361100    -0.0251530000
    O       1.3493449079    14.6724442416    10.4143129700       0.0300723000    -0.0009510500     0.0160176300
    O       3.4668772569     2.1073269733    10.4486943235      -0.0225022300    -0.0196842100    -0.0046121400
    O       6.3873867824    14.4393437595    10.3729027518       0.0047961200     0.0366401000    -0.0431763500
    O       9.1395940193     2.2904138180    10.3666224379       0.0215317700     0.0099344100     0.0508786300
    O       8.8468527519     9.6565887673    10.3572557889       0.0270508900    -0.0071664600    -0.0097303700
    O       1.2106882938     7.1742713393    10.4113671440      -0.0189370500     0.0211918600     0.0336098600
    O       6.4742885972     7.4743402362    10.4222004559       0.0066022800    -0.0282824000     0.0235850200
    O       3.5387961249     9.8202165867    10.3777374923      -0.0168278600    -0.0126893700     0.0336706900
    H       0.4155490881     7.5337361239    10.9984625489       0.0275989300    -0.0186957700    -0.0035843500
    H       8.7143771430    10.5933385429    10.6127572887      -0.0149778400     0.0235093500    -0.0039345800
    H       5.4789772746    14.0768472819    10.5946469161      -0.0048094800    -0.0011994800    -0.0074693200