ANIMSTEPS 31
CRYSTAL
PRIMVEC
    10.5599958569    0.0000000000    0.0000000000
     0.0000000000   14.9399970185    0.0000000000
     0.0000000000    0.0000000000   21.9999878486
 PRIMCOORD 1 
103 1 
silO 	 1.360401 	 14.036369 	 5.292787 
silO 	 6.624898 	 14.053857 	 5.301544 
silO 	 1.356442 	 6.591676 	 5.303545 
silO 	 9.262856 	 2.759461 	 5.308719 
silO 	 6.626000 	 6.604400 	 5.312922 
silO 	 9.267922 	 10.212165 	 5.318506 
silO 	 3.992491 	 2.737411 	 5.318633 
silO 	 3.985795 	 10.202315 	 5.320245 
silO 	 4.764583 	 5.040359 	 6.270232 
silO 	 2.127264 	 4.297386 	 6.275987 
silO 	 7.412243 	 4.331219 	 6.302464 
silO 	 4.783645 	 12.481509 	 6.305973 
silO 	 7.428824 	 11.787180 	 6.308803 
silO 	 10.057811 	 5.045035 	 6.310541 
silO 	 10.073627 	 12.490793 	 6.312386 
silO 	 2.151180 	 11.762790 	 6.342944 
Si 	 3.682191 	 3.842474 	 6.457879 
Si 	 1.054392 	 5.507592 	 6.461808 
Si 	 8.960127 	 3.850939 	 6.466825 
Si 	 6.328355 	 12.974267 	 6.468740 
Si 	 1.064238 	 12.968206 	 6.472459 
Si 	 6.310933 	 5.524093 	 6.473571 
Si 	 8.974793 	 11.301279 	 6.479404 
Si 	 3.702378 	 11.277151 	 6.492742 
silO 	 10.195254 	 8.241403 	 8.551321 
silO 	 2.400978 	 1.015093 	 8.465024 
silO 	 10.320376 	 0.741596 	 8.459174 
silO 	 5.081614 	 1.158986 	 8.634371 
silO 	 7.694352 	 1.158949 	 8.529397 
silO 	 1.088284 	 6.076598 	 8.080016 
silO 	 1.364931 	 13.613925 	 7.937766 
silO 	 6.449482 	 13.761530 	 7.887814 
silO 	 9.193161 	 3.261857 	 7.994832 
silO 	 3.794357 	 3.306951 	 8.011644 
silO 	 3.865785 	 10.647775 	 8.001081 
silO 	 6.527949 	 6.192456 	 7.972606 
silO 	 9.258988 	 10.675196 	 7.961857 
silO 	 7.432198 	 8.753372 	 8.345882 
silO 	 2.297025 	 8.523186 	 8.351253 
silO 	 4.828006 	 8.211955 	 8.592887 
Si 	 1.189453 	 0.001613 	 8.839748 
Si 	 3.682435 	 1.906200 	 8.859852 
Si 	 6.389781 	 0.182175 	 8.775787 
Si 	 9.153498 	 1.850423 	 8.804621 
Si 	 8.928137 	 9.290622 	 8.732619 
Si 	 1.098552 	 7.495252 	 8.819016 
Si 	 6.296569 	 7.592908 	 8.814158 
Si 	 3.631010 	 9.301834 	 8.851159 
silO 	 1.347604 	 14.678203 	 10.417055 
silO 	 3.461148 	 2.103998 	 10.447330 
silO 	 6.392458 	 14.440714 	 10.365963 
silO 	 9.141245 	 2.284778 	 10.363958 
silO 	 8.848528 	 9.664029 	 10.367073 
silO 	 1.210597 	 7.177005 	 10.408746 
silO 	 6.476743 	 7.478418 	 10.424651 
silO 	 3.538776 	 9.822330 	 10.380160 
silH 	 0.409175 	 7.525253 	 11.012907 
silH 	 8.691933 	 10.593011 	 10.593274 
silH 	 5.462328 	 14.098154 	 10.594151 
silH 	 0.668842 	 14.119140 	 10.879621 
silH 	 3.929883 	 2.788722 	 11.002323 
silH 	 9.944383 	 2.272636 	 11.034137 
watH 	 8.852139 	 14.540476 	 14.496327 
silH 	 2.568615 	 10.007524 	 10.627396 
silH 	 6.865604 	 6.669388 	 10.833640 
watH 	 2.981492 	 13.440336 	 10.362576 
watO 	 9.245498 	 14.929206 	 13.675382 
watH 	 9.773385 	 13.664475 	 12.505670 
watO 	 3.921924 	 13.205836 	 10.637869 
watH 	 7.368346 	 13.079136 	 10.627267 
watO 	 7.848921 	 12.260798 	 11.016215 
watH 	 8.530273 	 0.564153 	 13.244892 
watH 	 7.128328 	 11.611605 	 11.197607 
watO 	 10.050693 	 13.118121 	 11.716613 
watH 	 4.192924 	 5.180302 	 11.789382 
watH 	 2.835606 	 6.984925 	 11.127604 
watH 	 4.028796 	 12.237406 	 10.484213 
watH 	 7.884627 	 1.837140 	 11.802045 
watO 	 4.594939 	 4.230422 	 11.801230 
watH 	 9.209816 	 12.601253 	 11.513173 
watH 	 1.159398 	 1.372955 	 11.318886 
watO 	 0.720024 	 2.018325 	 11.959401 
watO 	 3.788149 	 6.773678 	 11.432884 
watH 	 0.657121 	 1.434851 	 12.740344 
watO 	 7.301098 	 1.292345 	 12.346851 
watH 	 4.312934 	 3.852992 	 12.666913 
watH 	 4.301141 	 7.470315 	 11.057919 
watH 	 6.968651 	 0.591978 	 11.721284 
watH 	 9.274603 	 8.554881 	 11.465739 
watH 	 0.455835 	 10.328584 	 10.414101 
watH 	 8.047372 	 4.349151 	 10.598548 
watH 	 3.983451 	 12.906913 	 12.754929 
watO 	 7.658706 	 4.982022 	 11.271184 
watO 	 9.831464 	 7.958071 	 12.041727 
watH 	 5.335403 	 11.465004 	 12.426078 
watH 	 6.858930 	 4.495927 	 11.573469 
watO 	 1.207940 	 10.833490 	 10.781503 
watO 	 4.225299 	 12.145380 	 13.333782 
watO 	 5.864950 	 10.978166 	 11.769628 
watH 	 9.344942 	 7.137647 	 12.256970 
watH 	 1.060930 	 11.036409 	 11.737247 
watH 	 5.261677 	 10.245898 	 11.451885 
watH 	 3.969704 	 12.442212 	 14.273178 
 PRIMCOORD 2 
103 1 
silO 	 1.360401 	 14.036369 	 5.292787 
silO 	 6.624898 	 14.053857 	 5.301544 
silO 	 1.356442 	 6.591676 	 5.303545 
silO 	 9.262856 	 2.759461 	 5.308719 
silO 	 6.626000 	 6.604400 	 5.312922 
silO 	 9.267922 	 10.212165 	 5.318506 
silO 	 3.992491 	 2.737411 	 5.318633 
silO 	 3.985795 	 10.202315 	 5.320245 
silO 	 4.764583 	 5.040359 	 6.270232 
silO 	 2.127264 	 4.297386 	 6.275987 
silO 	 7.412243 	 4.331219 	 6.302464 
silO 	 4.783645 	 12.481509 	 6.305973 
silO 	 7.428824 	 11.787180 	 6.308803 
silO 	 10.057811 	 5.045035 	 6.310541 
silO 	 10.073627 	 12.490793 	 6.312386 
silO 	 2.151180 	 11.762790 	 6.342944 
Si 	 3.682191 	 3.842474 	 6.457879 
Si 	 1.054392 	 5.507592 	 6.461808 
Si 	 8.960127 	 3.850939 	 6.466825 
Si 	 6.328355 	 12.974267 	 6.468740 
Si 	 1.064238 	 12.968206 	 6.472459 
Si 	 6.310933 	 5.524093 	 6.473571 
Si 	 8.974793 	 11.301279 	 6.479404 
Si 	 3.702378 	 11.277151 	 6.492742 
silO 	 10.196996 	 8.240611 	 8.552592 
silO 	 2.401719 	 1.012892 	 8.462787 
silO 	 10.318613 	 0.739783 	 8.458827 
silO 	 5.080646 	 1.161757 	 8.633988 
silO 	 7.697606 	 1.158275 	 8.531578 
silO 	 1.089238 	 6.074578 	 8.079421 
silO 	 1.364506 	 13.613009 	 7.939404 
silO 	 6.449422 	 13.760162 	 7.887210 
silO 	 9.195878 	 3.261779 	 7.996765 
silO 	 3.789782 	 3.307998 	 8.008821 
silO 	 3.867049 	 10.647972 	 8.001086 
silO 	 6.525034 	 6.197515 	 7.970324 
silO 	 9.259372 	 10.673148 	 7.959914 
silO 	 7.433953 	 8.752034 	 8.346139 
silO 	 2.293209 	 8.519121 	 8.354127 
silO 	 4.828232 	 8.210139 	 8.593628 
Si 	 1.190036 	 0.001181 	 8.838143 
Si 	 3.682224 	 1.906033 	 8.858957 
Si 	 6.389332 	 0.183924 	 8.777149 
Si 	 9.152062 	 1.848470 	 8.806950 
Si 	 8.928505 	 9.291508 	 8.733288 
Si 	 1.097321 	 7.495123 	 8.820764 
Si 	 6.296819 	 7.594503 	 8.814814 
Si 	 3.632893 	 9.303400 	 8.850584 
silO 	 1.348440 	 14.675293 	 10.415626 
silO 	 3.464074 	 2.105694 	 10.448004 
silO 	 6.389899 	 14.439960 	 10.369552 
silO 	 9.140360 	 2.287617 	 10.365207 
silO 	 8.847624 	 9.660298 	 10.362131 
silO 	 1.210683 	 7.175578 	 10.410008 
silO 	 6.475495 	 7.476387 	 10.423380 
silO 	 3.538798 	 9.821287 	 10.378877 
silH 	 0.411502 	 7.530118 	 11.005785 
silH 	 8.703798 	 10.592110 	 10.603136 
silH 	 5.470614 	 14.087308 	 10.594693 
silH 	 0.665019 	 14.124492 	 10.864862 
silH 	 3.921421 	 2.779691 	 11.002482 
silH 	 9.945176 	 2.281693 	 11.026104 
watH 	 8.858707 	 14.546686 	 14.502514 
silH 	 2.557071 	 10.009222 	 10.625985 
silH 	 6.868876 	 6.666942 	 10.843916 
watH 	 2.980497 	 13.443106 	 10.367238 
watO 	 9.246755 	 14.930338 	 13.673341 
watH 	 9.772894 	 13.667424 	 12.514628 
watO 	 3.926339 	 13.203486 	 10.639660 
watH 	 7.375648 	 13.073170 	 10.626639 
watO 	 7.849723 	 12.257135 	 11.019176 
watH 	 8.537914 	 0.566594 	 13.250092 
watH 	 7.122843 	 11.598033 	 11.193015 
watO 	 10.051278 	 13.119407 	 11.713762 
watH 	 4.202353 	 5.183619 	 11.792917 
watH 	 2.837261 	 6.994637 	 11.130374 
watH 	 4.029335 	 12.241931 	 10.488515 
watH 	 7.895428 	 1.850408 	 11.808814 
watO 	 4.597194 	 4.228423 	 11.800730 
watH 	 9.215389 	 12.598906 	 11.493950 
watH 	 1.162264 	 1.385969 	 11.318400 
watO 	 0.720652 	 2.018300 	 11.956582 
watO 	 3.787196 	 6.772339 	 11.433848 
watH 	 0.651568 	 1.440158 	 12.734202 
watO 	 7.299654 	 1.291781 	 12.347111 
watH 	 4.308358 	 3.839875 	 12.667313 
watH 	 4.301977 	 7.476374 	 11.059683 
watH 	 6.975443 	 0.576009 	 11.724425 
watH 	 9.270101 	 8.553096 	 11.470287 
watH 	 0.456509 	 10.325036 	 10.402697 
watH 	 8.046361 	 4.352960 	 10.595255 
watH 	 3.969215 	 12.909383 	 12.754221 
watO 	 7.659322 	 4.983401 	 11.270845 
watO 	 9.829583 	 7.957904 	 12.038755 
watH 	 5.330092 	 11.463225 	 12.418919 
watH 	 6.865984 	 4.506305 	 11.574236 
watO 	 1.207095 	 10.832849 	 10.783499 
watO 	 4.225185 	 12.148456 	 13.328767 
watO 	 5.865183 	 10.978935 	 11.766407 
watH 	 9.342834 	 7.146357 	 12.241878 
watH 	 1.065958 	 11.026041 	 11.747294 
watH 	 5.259317 	 10.244386 	 11.452625 
watH 	 3.962448 	 12.445545 	 14.258829 
 PRIMCOORD 3 
103 1 
silO 	 1.360401 	 14.036369 	 5.292787 
silO 	 6.624898 	 14.053857 	 5.301544 
silO 	 1.356442 	 6.591676 	 5.303545 
silO 	 9.262856 	 2.759461 	 5.308719 
silO 	 6.626000 	 6.604400 	 5.312922 
silO 	 9.267922 	 10.212165 	 5.318506 
silO 	 3.992491 	 2.737411 	 5.318633 
silO 	 3.985795 	 10.202315 	 5.320245 
silO 	 4.764583 	 5.040359 	 6.270232 
silO 	 2.127264 	 4.297386 	 6.275987 
silO 	 7.412243 	 4.331219 	 6.302464 
silO 	 4.783645 	 12.481509 	 6.305973 
silO 	 7.428824 	 11.787180 	 6.308803 
silO 	 10.057811 	 5.045035 	 6.310541 
silO 	 10.073627 	 12.490793 	 6.312386 
silO 	 2.151180 	 11.762790 	 6.342944 
Si 	 3.682191 	 3.842474 	 6.457879 
Si 	 1.054392 	 5.507592 	 6.461808 
Si 	 8.960127 	 3.850939 	 6.466825 
Si 	 6.328355 	 12.974267 	 6.468740 
Si 	 1.064238 	 12.968206 	 6.472459 
Si 	 6.310933 	 5.524093 	 6.473571 
Si 	 8.974793 	 11.301279 	 6.479404 
Si 	 3.702378 	 11.277151 	 6.492742 
silO 	 10.198581 	 8.239911 	 8.553832 
silO 	 2.402418 	 1.010723 	 8.460510 
silO 	 10.316914 	 0.738048 	 8.458516 
silO 	 5.079933 	 1.164224 	 8.633531 
silO 	 7.700641 	 1.157475 	 8.533712 
silO 	 1.090246 	 6.072484 	 8.078523 
silO 	 1.364048 	 13.612072 	 7.941054 
silO 	 6.449365 	 13.758886 	 7.886675 
silO 	 9.198530 	 3.261676 	 7.998543 
silO 	 3.785322 	 3.308970 	 8.006069 
silO 	 3.868317 	 10.648260 	 8.000971 
silO 	 6.522161 	 6.202474 	 7.968127 
silO 	 9.259721 	 10.671183 	 7.958030 
silO 	 7.435665 	 8.750616 	 8.346344 
silO 	 2.289425 	 8.515147 	 8.356926 
silO 	 4.828393 	 8.208451 	 8.594335 
Si 	 1.190565 	 0.000885 	 8.836469 
Si 	 3.681990 	 1.905924 	 8.858142 
Si 	 6.388915 	 0.185672 	 8.778562 
Si 	 9.150663 	 1.846521 	 8.809236 
Si 	 8.928864 	 9.292288 	 8.733983 
Si 	 1.096062 	 7.495081 	 8.822490 
Si 	 6.297168 	 7.596110 	 8.815435 
Si 	 3.634734 	 9.304829 	 8.849976 
silO 	 1.349345 	 14.672444 	 10.414313 
silO 	 3.466877 	 2.107327 	 10.448694 
silO 	 6.387387 	 14.439344 	 10.372903 
silO 	 9.139594 	 2.290414 	 10.366622 
silO 	 8.846853 	 9.656589 	 10.357256 
silO 	 1.210688 	 7.174271 	 10.411367 
silO 	 6.474289 	 7.474340 	 10.422200 
silO 	 3.538796 	 9.820217 	 10.377737 
silH 	 0.415549 	 7.533736 	 10.998463 
silH 	 8.714377 	 10.593339 	 10.612757 
silH 	 5.478977 	 14.076847 	 10.594647 
silH 	 0.659200 	 14.127732 	 10.851672 
silH 	 3.913757 	 2.772475 	 11.002293 
silH 	 9.944876 	 2.290128 	 11.016762 
watH 	 8.865456 	 14.553635 	 14.507185 
silH 	 2.546874 	 10.011659 	 10.624820 
silH 	 6.872250 	 6.664063 	 10.853339 
watH 	 2.981830 	 13.445460 	 10.372726 
watO 	 9.248024 	 14.931379 	 13.671435 
watH 	 9.772603 	 13.670158 	 12.522720 
watO 	 3.930505 	 13.201281 	 10.641401 
watH 	 7.383818 	 13.065726 	 10.626902 
watO 	 7.850528 	 12.253665 	 11.021904 
watH 	 8.544374 	 0.568661 	 13.255215 
watH 	 7.115839 	 11.584507 	 11.189689 
watO 	 10.051993 	 13.120753 	 11.711100 
watH 	 4.212450 	 5.185111 	 11.795621 
watH 	 2.840298 	 7.003019 	 11.133879 
watH 	 4.029770 	 12.245501 	 10.492257 
watH 	 7.906306 	 1.863732 	 11.813939 
watO 	 4.599334 	 4.226524 	 11.800347 
watH 	 9.220208 	 12.597035 	 11.474778 
watH 	 1.165350 	 1.399434 	 11.318328 
watO 	 0.721285 	 2.018269 	 11.953725 
watO 	 3.785949 	 6.770892 	 11.434854 
watH 	 0.645165 	 1.444907 	 12.729849 
watO 	 7.298205 	 1.291165 	 12.347435 
watH 	 4.304512 	 3.828051 	 12.666913 
watH 	 4.305992 	 7.484985 	 11.060134 
watH 	 6.982409 	 0.561421 	 11.727584 
watH 	 9.264886 	 8.551578 	 11.474643 
watH 	 0.456408 	 10.321817 	 10.392915 
watH 	 8.045075 	 4.357912 	 10.593283 
watH 	 3.955211 	 12.911721 	 12.753037 
watO 	 7.660014 	 4.984724 	 11.270414 
watO 	 9.827903 	 7.957758 	 12.035868 
watH 	 5.323986 	 11.462431 	 12.414236 
watH 	 6.871210 	 4.515830 	 11.575620 
watO 	 1.206360 	 10.832233 	 10.785473 
watO 	 4.224942 	 12.151581 	 13.324116 
watO 	 5.865389 	 10.979423 	 11.763099 
watH 	 9.339576 	 7.153717 	 12.227353 
watH 	 1.069690 	 11.015534 	 11.755507 
watH 	 5.258154 	 10.244297 	 11.453691 
watH 	 3.956568 	 12.447559 	 14.242128 
 PRIMCOORD 4 
103 1 
silO 	 1.360401 	 14.036369 	 5.292787 
silO 	 6.624898 	 14.053857 	 5.301544 
silO 	 1.356442 	 6.591676 	 5.303545 
silO 	 9.262856 	 2.759461 	 5.308719 
silO 	 6.626000 	 6.604400 	 5.312922 
silO 	 9.267922 	 10.212165 	 5.318506 
silO 	 3.992491 	 2.737411 	 5.318633 
silO 	 3.985795 	 10.202315 	 5.320245 
silO 	 4.764583 	 5.040359 	 6.270232 
silO 	 2.127264 	 4.297386 	 6.275987 
silO 	 7.412243 	 4.331219 	 6.302464 
silO 	 4.783645 	 12.481509 	 6.305973 
silO 	 7.428824 	 11.787180 	 6.308803 
silO 	 10.057811 	 5.045035 	 6.310541 
silO 	 10.073627 	 12.490793 	 6.312386 
silO 	 2.151180 	 11.762790 	 6.342944 
Si 	 3.682191 	 3.842474 	 6.457879 
Si 	 1.054392 	 5.507592 	 6.461808 
Si 	 8.960127 	 3.850939 	 6.466825 
Si 	 6.328355 	 12.974267 	 6.468740 
Si 	 1.064238 	 12.968206 	 6.472459 
Si 	 6.310933 	 5.524093 	 6.473571 
Si 	 8.974793 	 11.301279 	 6.479404 
Si 	 3.702378 	 11.277151 	 6.492742 
silO 	 10.200095 	 8.239263 	 8.555116 
silO 	 2.403123 	 1.008464 	 8.458064 
silO 	 10.315179 	 0.736286 	 8.458227 
silO 	 5.079437 	 1.166538 	 8.632972 
silO 	 7.703620 	 1.156496 	 8.535925 
silO 	 1.091367 	 6.070203 	 8.077288 
silO 	 1.363527 	 13.611053 	 7.942804 
silO 	 6.449307 	 13.757639 	 7.886188 
silO 	 9.201273 	 3.261539 	 8.000272 
silO 	 3.780711 	 3.309916 	 8.003237 
silO 	 3.869665 	 10.648655 	 8.000729 
silO 	 6.519161 	 6.207620 	 7.965878 
silO 	 9.260058 	 10.669186 	 7.956092 
silO 	 7.437435 	 8.749038 	 8.346508 
silO 	 2.285479 	 8.511048 	 8.359816 
silO 	 4.828493 	 8.206795 	 8.595048 
Si 	 1.191072 	 0.000707 	 8.834631 
Si 	 3.681716 	 1.905868 	 8.857360 
Si 	 6.388502 	 0.187516 	 8.780107 
Si 	 9.149223 	 1.844469 	 8.811610 
Si 	 8.929237 	 9.293006 	 8.734736 
Si 	 1.094701 	 7.495111 	 8.824294 
Si 	 6.297635 	 7.597824 	 8.816058 
Si 	 3.636634 	 9.306199 	 8.849298 
silO 	 1.350387 	 14.669501 	 10.413016 
silO 	 3.469688 	 2.108941 	 10.449390 
silO 	 6.384813 	 14.438841 	 10.376204 
silO 	 9.138882 	 2.293336 	 10.368267 
silO 	 8.846155 	 9.652736 	 10.352190 
silO 	 1.210625 	 7.173000 	 10.412892 
silO 	 6.473068 	 7.472126 	 10.421069 
silO 	 3.538734 	 9.819067 	 10.376683 
silH 	 0.421327 	 7.536383 	 10.990700 
silH 	 8.724423 	 10.595971 	 10.622455 
silH 	 5.487327 	 14.065985 	 10.594166 
silH 	 0.650831 	 14.128871 	 10.839529 
silH 	 3.906987 	 2.767389 	 11.002389 
silH 	 9.943741 	 2.298441 	 11.005865 
watH 	 8.872820 	 14.561750 	 14.510544 
silH 	 2.537965 	 10.014876 	 10.623655 
silH 	 6.875663 	 6.661118 	 10.862108 
watH 	 2.985710 	 13.447478 	 10.379379 
watO 	 9.249402 	 14.932371 	 13.669569 
watH 	 9.772561 	 13.672367 	 12.529753 
watO 	 3.934658 	 13.199136 	 10.643200 
watH 	 7.393102 	 13.056681 	 10.627901 
watO 	 7.851359 	 12.250118 	 11.024585 
watH 	 8.549682 	 0.570780 	 13.260333 
watH 	 7.107578 	 11.570893 	 11.187251 
watO 	 10.052864 	 13.122257 	 11.708492 
watH 	 4.223704 	 5.184839 	 11.797742 
watH 	 2.844640 	 7.010547 	 11.138263 
watH 	 4.030184 	 12.247622 	 10.495550 
watH 	 7.916972 	 1.876932 	 11.818386 
watO 	 4.601481 	 4.224599 	 11.800085 
watH 	 9.224658 	 12.595681 	 11.454780 
watH 	 1.169203 	 1.413560 	 11.318205 
watO 	 0.721939 	 2.018285 	 11.950676 
watO 	 3.784404 	 6.769325 	 11.435926 
watH 	 0.637570 	 1.449100 	 12.727239 
watO 	 7.296710 	 1.290491 	 12.347788 
watH 	 4.301302 	 3.817097 	 12.665221 
watH 	 4.312587 	 7.495508 	 11.059919 
watH 	 6.990180 	 0.547820 	 11.731109 
watH 	 9.258647 	 8.550435 	 11.478888 
watH 	 0.455964 	 10.319009 	 10.384453 
watH 	 8.043478 	 4.364142 	 10.592368 
watH 	 3.940721 	 12.913926 	 12.751234 
watO 	 7.660861 	 4.986111 	 11.269860 
watO 	 9.826347 	 7.957666 	 12.032887 
watH 	 5.316931 	 11.462551 	 12.411557 
watH 	 6.874280 	 4.524623 	 11.577937 
watO 	 1.205668 	 10.831590 	 10.787547 
watO 	 4.224565 	 12.154938 	 13.319488 
watO 	 5.865568 	 10.979669 	 11.759521 
watH 	 9.334570 	 7.159276 	 12.212794 
watH 	 1.072344 	 11.004171 	 11.762052 
watH 	 5.258121 	 10.245523 	 11.455039 
watH 	 3.951500 	 12.448563 	 14.223124 
 PRIMCOORD 5 
103 1 
silO 	 1.360401 	 14.036369 	 5.292787 
silO 	 6.624898 	 14.053857 	 5.301544 
silO 	 1.356442 	 6.591676 	 5.303545 
silO 	 9.262856 	 2.759461 	 5.308719 
silO 	 6.626000 	 6.604400 	 5.312922 
silO 	 9.267922 	 10.212165 	 5.318506 
silO 	 3.992491 	 2.737411 	 5.318633 
silO 	 3.985795 	 10.202315 	 5.320245 
silO 	 4.764583 	 5.040359 	 6.270232 
silO 	 2.127264 	 4.297386 	 6.275987 
silO 	 7.412243 	 4.331219 	 6.302464 
silO 	 4.783645 	 12.481509 	 6.305973 
silO 	 7.428824 	 11.787180 	 6.308803 
silO 	 10.057811 	 5.045035 	 6.310541 
silO 	 10.073627 	 12.490793 	 6.312386 
silO 	 2.151180 	 11.762790 	 6.342944 
Si 	 3.682191 	 3.842474 	 6.457879 
Si 	 1.054392 	 5.507592 	 6.461808 
Si 	 8.960127 	 3.850939 	 6.466825 
Si 	 6.328355 	 12.974267 	 6.468740 
Si 	 1.064238 	 12.968206 	 6.472459 
Si 	 6.310933 	 5.524093 	 6.473571 
Si 	 8.974793 	 11.301279 	 6.479404 
Si 	 3.702378 	 11.277151 	 6.492742 
silO 	 10.201429 	 8.238716 	 8.556359 
silO 	 2.403796 	 1.006265 	 8.455604 
silO 	 10.313522 	 0.734611 	 8.457980 
silO 	 5.079207 	 1.168538 	 8.632343 
silO 	 7.706330 	 1.155389 	 8.538076 
silO 	 1.092527 	 6.067893 	 8.075796 
silO 	 1.362977 	 13.610009 	 7.944533 
silO 	 6.449254 	 13.756520 	 7.885796 
silO 	 9.203926 	 3.261373 	 8.001834 
silO 	 3.776248 	 3.310764 	 8.000524 
silO 	 3.871006 	 10.649134 	 8.000374 
silO 	 6.516230 	 6.212614 	 7.963719 
silO 	 9.260364 	 10.667289 	 7.954229 
silO 	 7.439148 	 8.747400 	 8.346619 
silO 	 2.281659 	 8.507113 	 8.362612 
silO 	 4.828515 	 8.205286 	 8.595721 
Si 	 1.191521 	 0.000660 	 8.832751 
Si 	 3.681414 	 1.905876 	 8.856665 
Si 	 6.388120 	 0.189330 	 8.781688 
Si 	 9.147846 	 1.842452 	 8.813917 
Si 	 8.929603 	 9.293608 	 8.735491 
Si 	 1.093323 	 7.495198 	 8.826055 
Si 	 6.298194 	 7.599535 	 8.816640 
Si 	 3.638461 	 9.307407 	 8.848591 
silO 	 1.351506 	 14.666657 	 10.411812 
silO 	 3.472289 	 2.110379 	 10.449998 
silO 	 6.382383 	 14.438505 	 10.379220 
silO 	 9.138248 	 2.296195 	 10.370020 
silO 	 8.845569 	 9.649051 	 10.347298 
silO 	 1.210511 	 7.171840 	 10.414471 
silO 	 6.471927 	 7.469856 	 10.420089 
silO 	 3.538581 	 9.817917 	 10.375799 
silH 	 0.428226 	 7.537939 	 10.983240 
silH 	 8.733348 	 10.598996 	 10.631280 
silH 	 5.494530 	 14.055242 	 10.593408 
silH 	 0.640358 	 14.127730 	 10.829392 
silH 	 3.902073 	 2.765538 	 11.003340 
silH 	 9.942177 	 2.306077 	 10.994436 
watH 	 8.880317 	 14.570498 	 14.512371 
silH 	 2.531432 	 10.018614 	 10.622427 
silH 	 6.878653 	 6.658766 	 10.869272 
watH 	 2.991942 	 13.449009 	 10.386766 
watO 	 9.250828 	 14.933232 	 13.667877 
watH 	 9.772818 	 13.673507 	 12.534653 
watO 	 3.938520 	 13.197228 	 10.644950 
watH 	 7.402637 	 13.047001 	 10.629362 
watO 	 7.852143 	 12.246654 	 11.027065 
watH 	 8.553135 	 0.573078 	 13.264900 
watH 	 7.099175 	 11.558728 	 11.185760 
watO 	 10.053824 	 13.123839 	 11.706131 
watH 	 4.235272 	 5.182806 	 11.799189 
watH 	 2.849708 	 7.016700 	 11.143171 
watH 	 4.030582 	 12.247537 	 10.498068 
watH 	 7.925866 	 1.888229 	 11.822393 
watO 	 4.603499 	 4.222756 	 11.799982 
watH 	 9.228560 	 12.595138 	 11.435505 
watH 	 1.174004 	 1.426820 	 11.317556 
watO 	 0.722548 	 2.018398 	 11.947660 
watO 	 3.782736 	 6.767818 	 11.436962 
watH 	 0.629279 	 1.452290 	 12.726632 
watO 	 7.295306 	 1.289832 	 12.348107 
watH 	 4.299065 	 3.808004 	 12.661980 
watH 	 4.320480 	 7.506009 	 11.059711 
watH 	 6.998441 	 0.536542 	 11.734882 
watH 	 9.251783 	 8.549916 	 11.482610 
watH 	 0.455573 	 10.317060 	 10.378185 
watH 	 8.041756 	 4.371046 	 10.592374 
watH 	 3.926807 	 12.915679 	 12.748836 
watO 	 7.661833 	 4.987507 	 11.269220 
watO 	 9.825034 	 7.957669 	 12.030005 
watH 	 5.309697 	 11.463469 	 12.410814 
watH 	 6.874484 	 4.531770 	 11.581218 
watO 	 1.205046 	 10.830946 	 10.789584 
watO 	 4.224086 	 12.158309 	 13.315108 
watO 	 5.865693 	 10.979673 	 11.755926 
watH 	 9.327801 	 7.161943 	 12.199343 
watH 	 1.073675 	 10.992615 	 11.766246 
watH 	 5.259177 	 10.247821 	 11.456432 
watH 	 3.947316 	 12.448717 	 14.204290 
 PRIMCOORD 6 
103 1 
silO 	 1.360401 	 14.036369 	 5.292787 
silO 	 6.624898 	 14.053857 	 5.301544 
silO 	 1.356442 	 6.591676 	 5.303545 
silO 	 9.262856 	 2.759461 	 5.308719 
silO 	 6.626000 	 6.604400 	 5.312922 
silO 	 9.267922 	 10.212165 	 5.318506 
silO 	 3.992491 	 2.737411 	 5.318633 
silO 	 3.985795 	 10.202315 	 5.320245 
silO 	 4.764583 	 5.040359 	 6.270232 
silO 	 2.127264 	 4.297386 	 6.275987 
silO 	 7.412243 	 4.331219 	 6.302464 
silO 	 4.783645 	 12.481509 	 6.305973 
silO 	 7.428824 	 11.787180 	 6.308803 
silO 	 10.057811 	 5.045035 	 6.310541 
silO 	 10.073627 	 12.490793 	 6.312386 
silO 	 2.151180 	 11.762790 	 6.342944 
Si 	 3.682191 	 3.842474 	 6.457879 
Si 	 1.054392 	 5.507592 	 6.461808 
Si 	 8.960127 	 3.850939 	 6.466825 
Si 	 6.328355 	 12.974267 	 6.468740 
Si 	 1.064238 	 12.968206 	 6.472459 
Si 	 6.310933 	 5.524093 	 6.473571 
Si 	 8.974793 	 11.301279 	 6.479404 
Si 	 3.702378 	 11.277151 	 6.492742 
silO 	 10.202647 	 8.238243 	 8.557625 
silO 	 2.404479 	 1.004025 	 8.453010 
silO 	 10.311859 	 0.732937 	 8.457766 
silO 	 5.079230 	 1.170334 	 8.631614 
silO 	 7.708894 	 1.154096 	 8.540274 
silO 	 1.093783 	 6.065453 	 8.073993 
silO 	 1.362369 	 13.608883 	 7.946319 
silO 	 6.449202 	 13.755480 	 7.885489 
silO 	 9.206622 	 3.261166 	 8.003311 
silO 	 3.771709 	 3.311548 	 7.997807 
silO 	 3.872406 	 10.649718 	 7.999892 
silO 	 6.513222 	 6.217700 	 7.961536 
silO 	 9.260657 	 10.665396 	 7.952346 
silO 	 7.440890 	 8.745624 	 8.346683 
silO 	 2.277801 	 8.503161 	 8.365455 
silO 	 4.828458 	 8.203852 	 8.596387 
Si 	 1.191937 	 0.000737 	 8.830742 
Si 	 3.681066 	 1.905949 	 8.856021 
Si 	 6.387747 	 0.191196 	 8.783382 
Si 	 9.146467 	 1.840377 	 8.816270 
Si 	 8.929980 	 9.294124 	 8.736276 
Si 	 1.091861 	 7.495334 	 8.827860 
Si 	 6.298871 	 7.601326 	 8.817211 
Si 	 3.640299 	 9.308512 	 8.847819 
silO 	 1.352736 	 14.663756 	 10.410638 
silO 	 3.474796 	 2.111689 	 10.450519 
silO 	 6.380006 	 14.438330 	 10.382095 
silO 	 9.137629 	 2.299135 	 10.371937 
silO 	 8.845054 	 9.645406 	 10.342372 
silO 	 1.210365 	 7.170720 	 10.416163 
silO 	 6.470818 	 7.467399 	 10.419226 
silO 	 3.538314 	 9.816719 	 10.375042 
silH 	 0.436168 	 7.538655 	 10.976008 
silH 	 8.741697 	 10.601697 	 10.639373 
silH 	 5.500492 	 14.043927 	 10.592459 
silH 	 0.627591 	 14.124503 	 10.820645 
silH 	 3.899007 	 2.767158 	 11.005501 
silH 	 9.940565 	 2.313440 	 10.982343 
watH 	 8.888240 	 14.580180 	 14.513005 
silH 	 2.527181 	 10.022977 	 10.620978 
silH 	 6.881205 	 6.657213 	 10.874960 
watH 	 3.000500 	 13.450197 	 10.395127 
watO 	 9.252387 	 14.934005 	 13.666266 
watH 	 9.773377 	 13.673413 	 12.537332 
watO 	 3.942304 	 13.195468 	 10.646745 
watH 	 7.412550 	 13.036768 	 10.631048 
watO 	 7.852910 	 12.243030 	 11.029499 
watH 	 8.554768 	 0.575839 	 13.269009 
watH 	 7.090730 	 11.547896 	 11.185016 
watO 	 10.054910 	 13.125581 	 11.703899 
watH 	 4.247529 	 5.179141 	 11.800119 
watH 	 2.855301 	 7.021889 	 11.148694 
watH 	 4.030990 	 12.245048 	 10.499911 
watH 	 7.932824 	 1.897528 	 11.826579 
watO 	 4.605499 	 4.220883 	 11.800034 
watH 	 9.232263 	 12.595537 	 11.416230 
watH 	 1.180329 	 1.439337 	 11.315957 
watO 	 0.723119 	 2.018645 	 11.944565 
watO 	 3.780953 	 6.766367 	 11.437983 
watH 	 0.619979 	 1.454678 	 12.727713 
watO 	 7.293955 	 1.289183 	 12.348381 
watH 	 4.297702 	 3.800403 	 12.656968 
watH 	 4.329118 	 7.515773 	 11.060125 
watH 	 7.007672 	 0.527224 	 11.739113 
watH 	 9.244065 	 8.550060 	 11.485944 
watH 	 0.455498 	 10.316014 	 10.373921 
watH 	 8.039965 	 4.378615 	 10.592946 
watH 	 3.912894 	 12.916912 	 12.745687 
watO 	 7.662968 	 4.989009 	 11.268486 
watO 	 9.823887 	 7.957769 	 12.027079 
watH 	 5.302358 	 11.464973 	 12.411483 
watH 	 6.871862 	 4.537587 	 11.585595 
watO 	 1.204449 	 10.830255 	 10.791673 
watO 	 4.223499 	 12.161848 	 13.310660 
watO 	 5.865757 	 10.979476 	 11.752173 
watH 	 9.318963 	 7.161715 	 12.186375 
watH 	 1.073757 	 10.980301 	 11.768370 
watH 	 5.261157 	 10.250942 	 11.457742 
watH 	 3.943420 	 12.448381 	 14.186153 
 PRIMCOORD 7 
103 1 
silO 	 1.360401 	 14.036369 	 5.292787 
silO 	 6.624898 	 14.053857 	 5.301544 
silO 	 1.356442 	 6.591676 	 5.303545 
silO 	 9.262856 	 2.759461 	 5.308719 
silO 	 6.626000 	 6.604400 	 5.312922 
silO 	 9.267922 	 10.212165 	 5.318506 
silO 	 3.992491 	 2.737411 	 5.318633 
silO 	 3.985795 	 10.202315 	 5.320245 
silO 	 4.764583 	 5.040359 	 6.270232 
silO 	 2.127264 	 4.297386 	 6.275987 
silO 	 7.412243 	 4.331219 	 6.302464 
silO 	 4.783645 	 12.481509 	 6.305973 
silO 	 7.428824 	 11.787180 	 6.308803 
silO 	 10.057811 	 5.045035 	 6.310541 
silO 	 10.073627 	 12.490793 	 6.312386 
silO 	 2.151180 	 11.762790 	 6.342944 
Si 	 3.682191 	 3.842474 	 6.457879 
Si 	 1.054392 	 5.507592 	 6.461808 
Si 	 8.960127 	 3.850939 	 6.466825 
Si 	 6.328355 	 12.974267 	 6.468740 
Si 	 1.064238 	 12.968206 	 6.472459 
Si 	 6.310933 	 5.524093 	 6.473571 
Si 	 8.974793 	 11.301279 	 6.479404 
Si 	 3.702378 	 11.277151 	 6.492742 
silO 	 10.203812 	 8.237820 	 8.558989 
silO 	 2.405223 	 1.001611 	 8.450122 
silO 	 10.310091 	 0.731163 	 8.457574 
silO 	 5.079515 	 1.172032 	 8.630736 
silO 	 7.711454 	 1.152528 	 8.542654 
silO 	 1.095210 	 6.062746 	 8.071778 
silO 	 1.361665 	 13.607597 	 7.948261 
silO 	 6.449147 	 13.754472 	 7.885259 
silO 	 9.209525 	 3.260901 	 8.004791 
silO 	 3.766814 	 3.312309 	 7.994932 
silO 	 3.873950 	 10.650442 	 7.999253 
silO 	 6.509955 	 6.223184 	 7.959191 
silO 	 9.260955 	 10.663392 	 7.950330 
silO 	 7.442767 	 8.743601 	 8.346703 
silO 	 2.273700 	 8.498972 	 8.368520 
silO 	 4.828311 	 8.202411 	 8.597087 
Si 	 1.192342 	 0.000944 	 8.828490 
Si 	 3.680647 	 1.906096 	 8.855391 
Si 	 6.387361 	 0.193222 	 8.785297 
Si 	 9.145011 	 1.838123 	 8.818812 
Si 	 8.930394 	 9.294578 	 8.737131 
Si 	 1.090222 	 7.495512 	 8.829818 
Si 	 6.299709 	 7.603308 	 8.817803 
Si 	 3.642251 	 9.309572 	 8.846933 
silO 	 1.354125 	 14.660597 	 10.409429 
silO 	 3.477356 	 2.112937 	 10.450972 
silO 	 6.377562 	 14.438319 	 10.384992 
silO 	 9.136952 	 2.302334 	 10.374109 
silO 	 8.844574 	 9.641635 	 10.337146 
silO 	 1.210205 	 7.169555 	 10.418049 
silO 	 6.469681 	 7.464590 	 10.418448 
silO 	 3.537899 	 9.815402 	 10.374373 
silH 	 0.445174 	 7.538754 	 10.968927 
silH 	 8.750010 	 10.603475 	 10.646915 
silH 	 5.505206 	 14.031221 	 10.591335 
silH 	 0.612206 	 14.119308 	 10.812592 
silH 	 3.897699 	 2.772515 	 11.009070 
silH 	 9.939331 	 2.320992 	 10.969307 
watH 	 8.896957 	 14.591234 	 14.512811 
silH 	 2.525182 	 10.028186 	 10.619152 
silH 	 6.883352 	 6.656594 	 10.879297 
watH 	 3.011471 	 13.451226 	 10.404831 
watO 	 9.254191 	 14.934742 	 13.664621 
watH 	 9.774243 	 13.671915 	 12.537677 
watO 	 3.946271 	 13.193738 	 10.648706 
watH 	 7.423079 	 13.025977 	 10.632719 
watO 	 7.853704 	 12.238952 	 11.032063 
watH 	 8.554592 	 0.579316 	 13.272821 
watH 	 7.082141 	 11.538184 	 11.184914 
watO 	 10.056181 	 13.127594 	 11.701659 
watH 	 4.261008 	 5.173889 	 11.800638 
watH 	 2.861265 	 7.026529 	 11.155016 
watH 	 4.031406 	 12.240022 	 10.501185 
watH 	 7.937762 	 1.904830 	 11.831478 
watO 	 4.607621 	 4.218843 	 11.800239 
watH 	 9.236137 	 12.597094 	 11.396019 
watH 	 1.188888 	 1.451408 	 11.313015 
watO 	 0.723664 	 2.019060 	 11.941247 
watO 	 3.779030 	 6.764945 	 11.439029 
watH 	 0.609192 	 1.456550 	 12.730132 
watO 	 7.292603 	 1.288528 	 12.348609 
watH 	 4.297118 	 3.793894 	 12.649947 
watH 	 4.338231 	 7.524308 	 11.061724 
watH 	 7.018480 	 0.519465 	 11.744029 
watH 	 9.235155 	 8.550901 	 11.489090 
watH 	 0.455925 	 10.315915 	 10.371537 
watH 	 8.038167 	 4.386919 	 10.593728 
watH 	 3.898259 	 12.917533 	 12.741537 
watO 	 7.664308 	 4.990729 	 11.267647 
watO 	 9.822811 	 7.957961 	 12.023933 
watH 	 5.294935 	 11.466881 	 12.413141 
watH 	 6.866524 	 4.542528 	 11.591194 
watO 	 1.203832 	 10.829462 	 10.793927 
watO 	 4.222786 	 12.165763 	 13.305774 
watO 	 5.865751 	 10.979111 	 11.748074 
watH 	 9.307724 	 7.158752 	 12.173073 
watH 	 1.072543 	 10.966500 	 11.768704 
watH 	 5.263927 	 10.254660 	 11.458819 
watH 	 3.939170 	 12.447892 	 14.169144 
 PRIMCOORD 8 
103 1 
silO 	 1.360401 	 14.036369 	 5.292787 
silO 	 6.624898 	 14.053857 	 5.301544 
silO 	 1.356442 	 6.591676 	 5.303545 
silO 	 9.262856 	 2.759461 	 5.308719 
silO 	 6.626000 	 6.604400 	 5.312922 
silO 	 9.267922 	 10.212165 	 5.318506 
silO 	 3.992491 	 2.737411 	 5.318633 
silO 	 3.985795 	 10.202315 	 5.320245 
silO 	 4.764583 	 5.040359 	 6.270232 
silO 	 2.127264 	 4.297386 	 6.275987 
silO 	 7.412243 	 4.331219 	 6.302464 
silO 	 4.783645 	 12.481509 	 6.305973 
silO 	 7.428824 	 11.787180 	 6.308803 
silO 	 10.057811 	 5.045035 	 6.310541 
silO 	 10.073627 	 12.490793 	 6.312386 
silO 	 2.151180 	 11.762790 	 6.342944 
Si 	 3.682191 	 3.842474 	 6.457879 
Si 	 1.054392 	 5.507592 	 6.461808 
Si 	 8.960127 	 3.850939 	 6.466825 
Si 	 6.328355 	 12.974267 	 6.468740 
Si 	 1.064238 	 12.968206 	 6.472459 
Si 	 6.310933 	 5.524093 	 6.473571 
Si 	 8.974793 	 11.301279 	 6.479404 
Si 	 3.702378 	 11.277151 	 6.492742 
silO 	 10.204837 	 8.237479 	 8.560368 
silO 	 2.405991 	 0.999180 	 8.447109 